# vtk DataFile Version 3.0
vtk output
ASCII
DATASET UNSTRUCTURED_GRID
POINTS 8 float 
0 0 0
0.1 0 0
0.1 0.1 0
0 0.1 0
0 0 0.1
0.1 0 0.1
0.1 0.1 0.1
0 0.1 0.1
CELLS 6 30
4 0 1 2 3
4 4 5 6 7
4 0 1 5 4
4 2 3 7 6
4 0 4 7 3
4 1 2 6 5
CELL_TYPES 6
9
9
9
9
9
9
POINT_DATA 8
SCALARS my_scalars float 1
LOOKUP_TABLE default
0
1
2
3
4
5
6
7
